title = "Finite-element Data"
VARIABLES = "x", "y", "a","b"
ZONE T="test"
DATAPACKING=POINT
Nodes=5, Elements=4, ZONETYPE=FETriangle
STRANDID =1, SOLUTIONTIME = 10.5
0.0 0.0 1.0 2.0
-1.0 -1.0 0.0 2.2
-1.0 1.0 0.0 3.0
1.0 1.0 0.0 3.4
1.0 -1.0 0.0 1.1
1 2 3
1 3 4
1 4 5
1 5 2